{
  "home": {
    "title": "Temperature Converter",
    "subtitle": "A complete tool to convert between 8 temperature scales",
    "description": "Developed for students, engineers, and professionals who need precision in thermal calculations.",

    "actions": {
      "convert": {
        "title": "Convert",
        "subtitle": "Go to converter"
      },
      "learn": {
        "title": "Learn",
        "subtitle": "View scales"
      }
    },

    "features": {
      "title": "Main Features",
      "items": {
        "scales": {
          "title": "8 Scales",
          "description": "Kelvin, Celsius, Fahrenheit, Rankine, Réaumur, Rømer, Newton and Delisle"
        },
        "fast": {
          "title": "Fast Conversion",
          "description": "Instant conversions between all scales"
        },
        "compare": {
          "title": "Comparison",
          "description": "Comparison tables and common values"
        },
        "precision": {
          "title": "Precision",
          "description": "Up to 4 decimal places"
        }
      }
    },

    "temps": {
      "title": "Highlighted Temperatures",
      "freeze": "Water freezes",
      "boil": "Water boils",
      "body": "Human body",
      "absoluteZero": "Absolute zero"
    },

    "cta": {
      "title": "Ready to start?",
      "description": "Explore all the features of our advanced temperature converter",
      "button": "Start Converting →"
    },

    "footer": {
      "rights": "© 2026 Gaelectronica - All rights reserved",
      "tool": "Temperature conversion tool"
    }
  },
  "conversion": {
    "title": "Temperature Converter",
    "subtitle": "Convert between 8 different scales",
    "valueToConvert": "Value to convert",
    "placeholder": "Enter temperature",
    "from": "From",
    "to": "To",
    "swap": "Swap",
    "result": "Result",
    "decimals": "Decimals",
    "reset": "Reset",
    "errors": {
      "invalid": "Invalid value"
    }
  },
  "explanation": {
    "title": "Temperature Scales",
    "subtitle": "Complete guide to the {{count}} main scales",
    "intro": "From historical scales to modern absolute scales used in science.",
    "sectionScales": "The {{count}} Temperature Scales",
    "keyPoints": "Key points",
    "formula": "Main formula",
    "usage": "Historical / current usage",
    "curiosities": "Interesting Facts",
    "comparison": {
      "title": "Scale Comparison",
      "subtitle": "Equivalent values for common temperatures",
      "temperature": "Temperature"
    },
    "table": {
      "showFull": "Show full table",
      "showLess": "Show less",
      "moreItems": "... and {{count}} more temperatures",
      "scrollInstruction": "Scroll horizontally to see all scales"
    }
  },
  "navigation": {
    "home": "Home",
    "conversion": "Convertion",
    "explanation": "Information"
  },
  "errors": {
    "invalidNumber": "Please enter a valid number",
    "conversionError": "Conversion error"
  },
  "scales": {
    "kelvin": {
      "name": "Kelvin",
      "description": "Absolute scale of temperature"
    },
    "celsius": {
      "name": "Degree Celsius",
      "description": "Scale based on freezing and boiling points of water"
    },
    "fahrenheit": {
      "name": "Degree Fahrenheit",
      "description": "Used mainly in the US, it defines the freezing point of water at 32°F and the boiling point at 212°F."
    },
    "rankine": {
      "name": "Degree Rankine",
      "description": "Absolute thermodynamic scale, where 0°R is absolute zero. Related to Fahrenheit."
    },
    "reaumur": {
      "name": "Degree Réaumur",
      "description": "Scale where water freezes at 0°Ré and boils at 80°Ré."
    },
    "romer": {
      "name": "Degree Rømer",
      "description": "Historical scale that defines the freezing point of water at 7.5°Rø."
    },
    "newton": {
      "name": "Degree Newton",
      "description": "Scale that defines the freezing point of water at 0°N and the boiling point at 33°N."
    },
    "delisle": {
      "name": "Degree Delisle",
      "description": "Inverse scale where water boils at 0°De and freezes at 150°De."
    }
  }
}
